# vtk DataFile Version 3.0
2D Grid Data
ASCII
DATASET UNSTRUCTURED_GRID
POINTS 25 float
0 0 0.0
0 25 0.0
0 50 0.0
0 75 0.0
0 100 0.0
25 0 0.0
25 25 0.0
25 50 0.0
25 75 0.0
25 100 0.0
50 0 0.0
50 25 0.0
50 50 0.0
50 75 0.0
50 100 0.0
75 0 0.0
75 25 0.0
75 50 0.0
75 75 0.0
75 100 0.0
100 0 0.0
100 25 0.0
100 50 0.0
100 75 0.0
100 100 0.0
CELLS 16 80
4 0 5 6 1
4 1 6 7 2
4 2 7 8 3
4 3 8 9 4
4 5 10 11 6
4 6 11 12 7
4 7 12 13 8
4 8 13 14 9
4 10 15 16 11
4 11 16 17 12
4 12 17 18 13
4 13 18 19 14
4 15 20 21 16
4 16 21 22 17
4 17 22 23 18
4 18 23 24 19
CELL_TYPES 16
9
9
9
9
9
9
9
9
9
9
9
9
9
9
9
9
POINT_DATA 25
SCALARS Node_Status int 1
LOOKUP_TABLE default
1
1
1
1
1
1
0
0
0
1
1
0
0
0
1
1
0
0
0
1
1
1
1
1
1
